Program Version,EnergyPlus, Version 23.1.0-87ed9199d4, YMD=2023.10.02 16:29
1,5,Environment Title[],Latitude[deg],Longitude[deg],Time Zone[],Elevation[m]
2,8,Day of Simulation[],Month[],Day of Month[],DST Indicator[1=yes 0=no],Hour[],StartMinute[],EndMinute[],DayType
3,5,Cumulative Day of Simulation[],Month[],Day of Month[],DST Indicator[1=yes 0=no],DayType  ! When Daily Report Variables Requested
4,2,Cumulative Days of Simulation[],Month[]  ! When Monthly Report Variables Requested
5,1,Cumulative Days of Simulation[] ! When Run Period Report Variables Requested
6,1,Calendar Year of Simulation[] ! When Annual Report Variables Requested
7,1,Environment,Site Outdoor Air Drybulb Temperature [C] !TimeStep
8,1,Environment,Site Wind Speed [m/s] !TimeStep
9,1,Environment,Site Wind Direction [deg] !TimeStep
10,1,Environment,Site Diffuse Solar Radiation Rate per Area [W/m2] !TimeStep
11,1,Environment,Site Diffuse Solar Radiation Rate per Area [W/m2] !Hourly
12,1,Environment,Site Direct Solar Radiation Rate per Area [W/m2] !TimeStep
13,1,Environment,Site Solar Hour Angle [deg] !TimeStep
208,1,TECHO,Surface Outside Face Incident Solar Radiation Rate per Area [W/m2] !TimeStep
End of Data Dictionary
1,RUN PERIOD 1,  18.85, -99.14,  -6.00,1280.00
2,1, 3, 4, 0, 1, 0.00,10.00,Sunday
7,21.7
8,0.9
9,329.0
10,0.0
12,0.0
13,189.6366987485473
208,0.0
2,1, 3, 4, 0, 1,10.00,20.00,Sunday
7,22.6
8,0.8
9,330.0
10,0.0
12,0.0
13,187.1366987485473
208,0.0
2,1, 3, 4, 0, 1,20.00,30.00,Sunday
7,21.9
8,1.3
9,338.0
10,0.0
12,0.0
13,184.6366987485473
208,0.0
2,1, 3, 4, 0, 1,30.00,40.00,Sunday
7,21.6
8,2.1
9,348.0
10,0.0
12,0.0
13,182.1366987485473
208,0.0
2,1, 3, 4, 0, 1,40.00,50.00,Sunday
7,21.4
8,2.0
9,346.0
10,0.0
12,0.0
13,179.6366987485473
208,0.0
2,1, 3, 4, 0, 1,50.00,60.00,Sunday
7,21.0
8,2.3
9,337.0
10,0.0
12,0.0
13,177.1366987485473
208,0.0
2,1, 3, 4, 0, 1, 0.00,60.00,Sunday
11,0.0
2,1, 3, 4, 0, 2, 0.00,10.00,Sunday
7,21.3
8,2.1
9,309.0
10,0.0
12,0.0
13,174.6366987485473
208,0.0
2,1, 3, 4, 0, 2,10.00,20.00,Sunday
7,20.5
8,2.4
9,347.0
10,0.0
12,0.0
13,172.1366987485473
208,0.0
2,1, 3, 4, 0, 2,20.00,30.00,Sunday
7,20.5
8,2.7
9,334.0
10,0.0
12,0.0
13,169.6366987485473
208,0.0
2,1, 3, 4, 0, 2,30.00,40.00,Sunday
7,20.6
8,2.2
9,343.0
10,0.0
12,0.0
13,167.1366987485473
208,0.0
2,1, 3, 4, 0, 2,40.00,50.00,Sunday
7,20.3
8,1.8
9,188.0
10,0.0
12,0.0
13,164.6366987485473
208,0.0
2,1, 3, 4, 0, 2,50.00,60.00,Sunday
7,19.7
8,2.0
9,213.0
10,0.0
12,0.0
13,162.1366987485473
208,0.0
2,1, 3, 4, 0, 2, 0.00,60.00,Sunday
11,0.0
2,1, 3, 4, 0, 3, 0.00,10.00,Sunday
7,19.2
8,2.2
9,343.0
10,0.0
12,0.0
13,159.6366987485473
208,0.0
2,1, 3, 4, 0, 3,10.00,20.00,Sunday
7,19.4
8,2.5
9,341.0
10,0.0
12,0.0
13,157.1366987485473
208,0.0
2,1, 3, 4, 0, 3,20.00,30.00,Sunday
7,19.6
8,2.1
9,333.0
10,0.0
12,0.0
13,154.6366987485473
208,0.0
2,1, 3, 4, 0, 3,30.00,40.00,Sunday
7,18.9
8,2.1
9,209.0
10,0.0
12,0.0
13,152.1366987485473
208,0.0
2,1, 3, 4, 0, 3,40.00,50.00,Sunday
7,18.5
8,1.9
9,155.0
10,0.0
12,0.0
13,149.6366987485473
208,0.0
2,1, 3, 4, 0, 3,50.00,60.00,Sunday
7,18.1
8,1.2
9,280.0
10,0.0
12,0.0
13,147.1366987485473
208,0.0
2,1, 3, 4, 0, 3, 0.00,60.00,Sunday
11,0.0
2,1, 3, 4, 0, 4, 0.00,10.00,Sunday
7,17.9
8,2.0
9,283.0
10,0.0
12,0.0
13,144.6366987485473
208,0.0
2,1, 3, 4, 0, 4,10.00,20.00,Sunday
7,18.8
8,1.9
9,277.0
10,0.0
12,0.0
13,142.1366987485473
208,0.0
2,1, 3, 4, 0, 4,20.00,30.00,Sunday
7,19.2
8,2.2
9,309.0
10,0.0
12,0.0
13,139.6366987485473
208,0.0
2,1, 3, 4, 0, 4,30.00,40.00,Sunday
7,18.5
8,2.5
9,327.0
10,0.0
12,0.0
13,137.1366987485473
208,0.0
2,1, 3, 4, 0, 4,40.00,50.00,Sunday
7,18.7
8,2.2
9,312.0
10,0.0
12,0.0
13,134.6366987485473
208,0.0
2,1, 3, 4, 0, 4,50.00,60.00,Sunday
7,17.9
8,2.2
9,319.0
10,0.0
12,0.0
13,132.1366987485473
208,0.0
2,1, 3, 4, 0, 4, 0.00,60.00,Sunday
11,0.0
2,1, 3, 4, 0, 5, 0.00,10.00,Sunday
7,17.5
8,2.4
9,316.0
10,0.0
12,0.0
13,129.6366987485473
208,0.0
2,1, 3, 4, 0, 5,10.00,20.00,Sunday
7,17.5
8,2.2
9,309.0
10,0.0
12,0.0
13,127.13669874854732
208,0.0
2,1, 3, 4, 0, 5,20.00,30.00,Sunday
7,17.7
8,2.0
9,332.0
10,0.0
12,0.0
13,124.63669874854732
208,0.0
2,1, 3, 4, 0, 5,30.00,40.00,Sunday
7,17.6
8,2.5
9,330.0
10,0.0
12,0.0
13,122.13669874854732
208,0.0
2,1, 3, 4, 0, 5,40.00,50.00,Sunday
7,17.4
8,2.3
9,332.0
10,0.0
12,0.0
13,119.63669874854732
208,0.0
2,1, 3, 4, 0, 5,50.00,60.00,Sunday
7,17.3
8,2.7
9,340.0
10,0.0
12,0.0
13,117.13669874854732
208,0.0
2,1, 3, 4, 0, 5, 0.00,60.00,Sunday
11,0.0
2,1, 3, 4, 0, 6, 0.00,10.00,Sunday
7,17.3
8,2.9
9,346.0
10,0.0
12,0.0
13,114.63669874854732
208,0.0
2,1, 3, 4, 0, 6,10.00,20.00,Sunday
7,17.3
8,2.8
9,345.0
10,0.0
12,0.0
13,112.13669874854732
208,0.0
2,1, 3, 4, 0, 6,20.00,30.00,Sunday
7,17.1
8,3.2
9,345.0
10,0.0
12,0.0
13,109.63669874854732
208,0.0
2,1, 3, 4, 0, 6,30.00,40.00,Sunday
7,16.9
8,3.3
9,343.0
10,0.0
12,0.0
13,107.13669874854732
208,0.0
2,1, 3, 4, 0, 6,40.00,50.00,Sunday
7,16.8
8,3.3
9,345.0
10,0.0
12,0.0
13,104.63669874854732
208,0.0
2,1, 3, 4, 0, 6,50.00,60.00,Sunday
7,16.8
8,3.2
9,344.0
10,0.0
12,0.0
13,102.13669874854732
208,0.0
2,1, 3, 4, 0, 6, 0.00,60.00,Sunday
11,0.0
2,1, 3, 4, 0, 7, 0.00,10.00,Sunday
7,16.7
8,3.1
9,354.0
10,0.0
12,0.0
13,99.63669874854732
208,0.0
2,1, 3, 4, 0, 7,10.00,20.00,Sunday
7,16.7
8,2.8
9,352.0
10,0.0
12,0.0
13,97.13669874854732
208,0.0
2,1, 3, 4, 0, 7,20.00,30.00,Sunday
7,16.7
8,2.7
9,341.0
10,0.0
12,0.0
13,94.63669874854732
208,0.0
2,1, 3, 4, 0, 7,30.00,40.00,Sunday
7,16.5
8,2.3
9,344.0
10,0.0
12,0.0
13,92.13669874854732
208,0.0
2,1, 3, 4, 0, 7,40.00,50.00,Sunday
7,16.4
8,2.7
9,344.0
10,0.0
12,0.0
13,89.63669874854732
208,0.0
2,1, 3, 4, 0, 7,50.00,60.00,Sunday
7,16.1
8,2.6
9,329.0
10,0.891
12,0.0
13,87.13669874854732
208,0.891
2,1, 3, 4, 0, 7, 0.00,60.00,Sunday
11,0.1485
2,1, 3, 4, 0, 8, 0.00,10.00,Sunday
7,15.9
8,2.4
9,323.0
10,7.444
12,8.76
13,84.63669874854732
208,7.966539194918631
2,1, 3, 4, 0, 8,10.00,20.00,Sunday
7,16.1
8,2.2
9,330.0
10,17.28
12,119.8
13,82.13669874854732
208,29.315052473655438
2,1, 3, 4, 0, 8,20.00,30.00,Sunday
7,16.2
8,2.3
9,330.0
10,26.78
12,234.7
13,79.63669874854732
208,59.876889194305775
2,1, 3, 4, 0, 8,30.00,40.00,Sunday
7,16.6
8,1.8
9,306.0
10,35.4
12,345.1
13,77.13669874854732
208,97.9487972628096
2,1, 3, 4, 0, 8,40.00,50.00,Sunday
7,17.1
8,1.5
9,287.0
10,42.56
12,427.4
13,74.63669874854732
208,137.04719246030731
2,1, 3, 4, 0, 8,50.00,60.00,Sunday
7,17.8
8,1.2
9,293.0
10,49.06
12,492.4
13,72.13669874854732
208,177.29091510066368
2,1, 3, 4, 0, 8, 0.00,60.00,Sunday
11,29.754
2,1, 3, 4, 0, 9, 0.00,10.00,Sunday
7,18.8
8,1.1
9,266.0
10,55.15
12,537.0
13,69.63669874854733
208,215.82626629262592
2,1, 3, 4, 0, 9,10.00,20.00,Sunday
7,19.8
8,1.1
9,204.0
10,60.57
12,577.1
13,67.1366987485473
208,255.26776524600166
2,1, 3, 4, 0, 9,20.00,30.00,Sunday
7,20.6
8,0.8
9,214.0
10,65.13
12,618.4
13,64.6366987485473
208,296.9266024726828
2,1, 3, 4, 0, 9,30.00,40.00,Sunday
7,21.2
8,1.4
9,201.0
10,69.48
12,657.2
13,62.13669874854732
208,339.930953986253
2,1, 3, 4, 0, 9,40.00,50.00,Sunday
7,21.1
8,1.6
9,189.0
10,74.43
12,680.3
13,59.636698748547296
208,378.77205570275436
2,1, 3, 4, 0, 9,50.00,60.00,Sunday
7,21.8
8,1.5
9,178.0
10,77.43
12,706.6
13,57.1366987485473
208,418.22173893393085
2,1, 3, 4, 0, 9, 0.00,60.00,Sunday
11,67.03166666666667
2,1, 3, 4, 0,10, 0.00,10.00,Sunday
7,22.3
8,1.4
9,156.0
10,81.8
12,728.6
13,54.63669874854732
208,457.9426346736076
2,1, 3, 4, 0,10,10.00,20.00,Sunday
7,22.8
8,1.8
9,225.0
10,85.9
12,746.6
13,52.136698748547296
208,495.90870835740634
2,1, 3, 4, 0,10,20.00,30.00,Sunday
7,22.9
8,1.6
9,203.0
10,90.1
12,759.6
13,49.6366987485473
208,531.4100878447321
2,1, 3, 4, 0,10,30.00,40.00,Sunday
7,23.1
8,1.3
9,170.0
10,93.1
12,777.2
13,47.13669874854732
208,568.4516308832451
2,1, 3, 4, 0,10,40.00,50.00,Sunday
7,23.3
8,1.0
9,162.0
10,95.8
12,796.6
13,44.636698748547296
208,606.4531474827568
2,1, 3, 4, 0,10,50.00,60.00,Sunday
7,23.9
8,1.7
9,131.0
10,94.1
12,828.0
13,42.1366987485473
208,648.1821399932455
2,1, 3, 4, 0,10, 0.00,60.00,Sunday
11,90.13333333333333
2,1, 3, 4, 0,11, 0.00,10.00,Sunday
7,24.4
8,1.6
9,193.0
10,94.7
12,843.0
13,39.63669874854732
208,681.4183677889934
2,1, 3, 4, 0,11,10.00,20.00,Sunday
7,24.4
8,1.6
9,118.0
10,98.2
12,848.0
13,37.136698748547296
208,709.9570071801681
2,1, 3, 4, 0,11,20.00,30.00,Sunday
7,25.0
8,1.8
9,97.0
10,101.8
12,852.0
13,34.6366987485473
208,736.882425555882
2,1, 3, 4, 0,11,30.00,40.00,Sunday
7,24.8
8,1.4
9,183.0
10,104.0
12,857.0
13,32.13669874854732
208,762.1022427097687
2,1, 3, 4, 0,11,40.00,50.00,Sunday
7,25.4
8,1.2
9,179.0
10,105.2
12,867.0
13,29.636698748547296
208,789.1804571008059
2,1, 3, 4, 0,11,50.00,60.00,Sunday
7,25.3
8,1.8
9,199.0
10,107.7
12,869.0
13,27.136698748547307
208,810.1427053669476
2,1, 3, 4, 0,11, 0.00,60.00,Sunday
11,101.93333333333334
2,1, 3, 4, 0,12, 0.00,10.00,Sunday
7,25.4
8,1.9
9,167.0
10,111.3
12,864.0
13,24.636698748547317
208,825.1075547199869
2,1, 3, 4, 0,12,10.00,20.00,Sunday
7,25.4
8,1.7
9,209.0
10,112.1
12,876.0
13,22.136698748547296
208,850.0123701466026
2,1, 3, 4, 0,12,20.00,30.00,Sunday
7,26.2
8,1.4
9,191.0
10,112.3
12,880.0
13,19.636698748547307
208,866.3741084488049
2,1, 3, 4, 0,12,30.00,40.00,Sunday
7,25.2
8,1.2
9,157.0
10,114.1
12,885.0
13,17.136698748547317
208,883.8274311406703
2,1, 3, 4, 0,12,40.00,50.00,Sunday
7,27.0
8,2.0
9,115.0
10,115.2
12,893.0
13,14.636698748547298
208,901.8254894389637
2,1, 3, 4, 0,12,50.00,60.00,Sunday
7,27.0
8,1.7
9,171.0
10,116.1
12,901.0
13,12.136698748547307
208,918.2373247706835
2,1, 3, 4, 0,12, 0.00,60.00,Sunday
11,113.51666666666667
2,1, 3, 4, 0,13, 0.00,10.00,Sunday
7,27.2
8,2.2
9,146.0
10,116.6
12,904.0
13,9.636698748547316
208,928.3154354025654
2,1, 3, 4, 0,13,10.00,20.00,Sunday
7,26.8
8,1.9
9,192.0
10,118.8
12,901.0
13,7.136698748547298
208,933.1125156727228
2,1, 3, 4, 0,13,20.00,30.00,Sunday
7,26.2
8,1.5
9,148.0
10,120.5
12,898.0
13,4.636698748547307
208,935.776092427647
2,1, 3, 4, 0,13,30.00,40.00,Sunday
7,28.1
8,1.6
9,165.0
10,120.8
12,900.0
13,2.1366987485473157
208,939.9661348543757
2,1, 3, 4, 0,13,40.00,50.00,Sunday
7,27.6
8,1.8
9,250.0
10,121.4
12,896.0
13,-0.3633012514527021
208,937.3848384904758
2,1, 3, 4, 0,13,50.00,60.00,Sunday
7,28.4
8,1.0
9,247.0
10,121.3
12,897.0
13,-2.863301251452693
208,937.0472013919126
2,1, 3, 4, 0,13, 0.00,60.00,Sunday
11,119.89999999999999
2,1, 3, 4, 0,14, 0.00,10.00,Sunday
7,28.9
8,1.4
9,311.0
10,121.6
12,895.0
13,-5.363301251452684
208,932.7800707071613
2,1, 3, 4, 0,14,10.00,20.00,Sunday
7,27.6
8,2.0
9,227.0
10,123.5
12,893.0
13,-7.863301251452704
208,928.531501543151
2,1, 3, 4, 0,14,20.00,30.00,Sunday
7,28.4
8,1.5
9,172.0
10,123.5
12,881.0
13,-10.363301251452693
208,911.8718351084054
2,1, 3, 4, 0,14,30.00,40.00,Sunday
7,29.4
8,1.5
9,171.0
10,125.3
12,872.0
13,-12.863301251452683
208,898.2988200070187
2,1, 3, 4, 0,14,40.00,50.00,Sunday
7,29.0
8,2.2
9,135.0
10,130.6
12,857.0
13,-15.363301251452704
208,881.6114118297886
2,1, 3, 4, 0,14,50.00,60.00,Sunday
7,29.3
8,2.3
9,79.0
10,132.7
12,850.0
13,-17.863301251452693
208,867.4892966751786
2,1, 3, 4, 0,14, 0.00,60.00,Sunday
11,126.2
2,1, 3, 4, 0,15, 0.00,10.00,Sunday
7,28.8
8,2.0
9,146.0
10,134.3
12,848.0
13,-20.363301251452683
208,855.8504902058542
2,1, 3, 4, 0,15,10.00,20.00,Sunday
7,29.6
8,1.5
9,193.0
10,135.0
12,834.0
13,-22.863301251452704
208,831.9178549414662
2,1, 3, 4, 0,15,20.00,30.00,Sunday
7,29.3
8,2.9
9,127.0
10,134.5
12,834.0
13,-25.363301251452697
208,817.3214471595901
2,1, 3, 4, 0,15,30.00,40.00,Sunday
7,29.7
8,1.1
9,224.0
10,132.3
12,819.0
13,-27.863301251452683
208,787.6725497532423
2,1, 3, 4, 0,15,40.00,50.00,Sunday
7,30.4
8,1.5
9,112.0
10,130.5
12,810.0
13,-30.363301251452704
208,762.3874540845131
2,1, 3, 4, 0,15,50.00,60.00,Sunday
7,30.4
8,2.3
9,122.0
10,129.0
12,806.0
13,-32.8633012514527
208,740.3194630656477
2,1, 3, 4, 0,15, 0.00,60.00,Sunday
11,132.6
2,1, 3, 4, 0,16, 0.00,10.00,Sunday
7,30.7
8,1.5
9,212.0
10,125.9
12,796.0
13,-35.36330125145268
208,711.2072398203369
2,1, 3, 4, 0,16,10.00,20.00,Sunday
7,30.8
8,2.7
9,231.0
10,123.5
12,793.7
13,-37.863301251452704
208,687.5835641538769
2,1, 3, 4, 0,16,20.00,30.00,Sunday
7,29.5
8,2.4
9,153.0
10,121.1
12,785.0
13,-40.3633012514527
208,658.5734792018906
2,1, 3, 4, 0,16,30.00,40.00,Sunday
7,30.7
8,1.7
9,147.0
10,118.0
12,770.2
13,-42.86330125145268
208,624.2487849129853
2,1, 3, 4, 0,16,40.00,50.00,Sunday
7,31.5
8,1.9
9,136.0
10,115.2
12,759.6
13,-45.363301251452704
208,592.6847622255752
2,1, 3, 4, 0,16,50.00,60.00,Sunday
7,31.5
8,2.1
9,172.0
10,112.8
12,745.6
13,-47.8633012514527
208,559.1529384448056
2,1, 3, 4, 0,16, 0.00,60.00,Sunday
11,119.41666666666667
2,1, 3, 4, 0,17, 0.00,10.00,Sunday
7,32.0
8,1.8
9,238.0
10,110.1
12,735.4
13,-50.36330125145271
208,527.4390771261355
2,1, 3, 4, 0,17,10.00,20.00,Sunday
7,31.7
8,1.4
9,164.0
10,106.2
12,713.2
13,-52.863301251452675
208,487.91166845695204
2,1, 3, 4, 0,17,20.00,30.00,Sunday
7,32.4
8,0.9
9,160.0
10,100.8
12,696.9
13,-55.3633012514527
208,450.5337468617887
2,1, 3, 4, 0,17,30.00,40.00,Sunday
7,32.0
8,1.5
9,156.0
10,97.5
12,667.5
13,-57.86330125145271
208,409.5292987582172
2,1, 3, 4, 0,17,40.00,50.00,Sunday
7,31.8
8,2.3
9,159.0
10,94.6
12,629.3
13,-60.36330125145268
208,366.5381056993408
2,1, 3, 4, 0,17,50.00,60.00,Sunday
7,32.0
8,1.3
9,162.0
10,90.0
12,590.1
13,-62.8633012514527
208,323.62900119559504
2,1, 3, 4, 0,17, 0.00,60.00,Sunday
11,99.86666666666667
2,1, 3, 4, 0,18, 0.00,10.00,Sunday
7,32.6
8,1.7
9,175.0
10,85.1
12,558.4
13,-65.36330125145271
208,285.50279844794795
2,1, 3, 4, 0,18,10.00,20.00,Sunday
7,31.7
8,2.2
9,216.0
10,80.5
12,517.6
13,-67.86330125145268
208,246.71080568405625
2,1, 3, 4, 0,18,20.00,30.00,Sunday
7,31.2
8,2.5
9,191.0
10,74.21
12,471.1
13,-70.3633012514527
208,207.3797460581381
2,1, 3, 4, 0,18,30.00,40.00,Sunday
7,31.1
8,1.8
9,202.0
10,66.44
12,413.2
13,-72.86330125145271
208,167.11239997776863
2,1, 3, 4, 0,18,40.00,50.00,Sunday
7,31.1
8,1.6
9,207.0
10,58.72
12,361.3
13,-75.36330125145268
208,132.454183965663
2,1, 3, 4, 0,18,50.00,60.00,Sunday
7,30.8
8,1.7
9,184.0
10,49.93
12,307.6
13,-77.8633012514527
208,100.39845864642471
2,1, 3, 4, 0,18, 0.00,60.00,Sunday
11,69.15
2,1, 3, 4, 0,19, 0.00,10.00,Sunday
7,30.1
8,2.0
9,177.0
10,41.03
12,239.6
13,-80.36330125145271
208,70.66647924674012
2,1, 3, 4, 0,19,10.00,20.00,Sunday
7,30.2
8,1.2
9,206.0
10,29.8
12,164.4
13,-82.86330125145268
208,43.44789600274464
2,1, 3, 4, 0,19,20.00,30.00,Sunday
7,29.8
8,1.2
9,206.0
10,18.44
12,81.3
13,-85.3633012514527
208,21.86467214161939
2,1, 3, 4, 0,19,30.00,40.00,Sunday
7,29.0
8,0.9
9,241.0
10,0.0
12,0.0
13,-87.86330125145271
208,0.0
2,1, 3, 4, 0,19,40.00,50.00,Sunday
7,28.3
8,0.2
9,279.0
10,0.0
12,0.0
13,-90.36330125145268
208,0.0
2,1, 3, 4, 0,19,50.00,60.00,Sunday
7,27.8
8,0.0
9,255.0
10,0.0
12,0.0
13,-92.8633012514527
208,0.0
2,1, 3, 4, 0,19, 0.00,60.00,Sunday
11,14.878333333333332
2,1, 3, 4, 0,20, 0.00,10.00,Sunday
7,27.1
8,0.0
9,303.0
10,0.0
12,0.0
13,-95.36330125145271
208,0.0
2,1, 3, 4, 0,20,10.00,20.00,Sunday
7,26.5
8,0.6
9,340.0
10,0.0
12,0.0
13,-97.86330125145268
208,0.0
2,1, 3, 4, 0,20,20.00,30.00,Sunday
7,25.8
8,2.0
9,346.0
10,0.0
12,0.0
13,-100.3633012514527
208,0.0
2,1, 3, 4, 0,20,30.00,40.00,Sunday
7,25.4
8,2.6
9,316.0
10,0.0
12,0.0
13,-102.86330125145271
208,0.0
2,1, 3, 4, 0,20,40.00,50.00,Sunday
7,25.0
8,2.4
9,318.0
10,0.0
12,0.0
13,-105.36330125145268
208,0.0
2,1, 3, 4, 0,20,50.00,60.00,Sunday
7,24.7
8,2.3
9,321.0
10,0.0
12,0.0
13,-107.8633012514527
208,0.0
2,1, 3, 4, 0,20, 0.00,60.00,Sunday
11,0.0
2,1, 3, 4, 0,21, 0.00,10.00,Sunday
7,24.3
8,2.2
9,353.0
10,0.0
12,0.0
13,-110.36330125145271
208,0.0
2,1, 3, 4, 0,21,10.00,20.00,Sunday
7,24.3
8,2.2
9,316.0
10,0.0
12,0.0
13,-112.86330125145268
208,0.0
2,1, 3, 4, 0,21,20.00,30.00,Sunday
7,24.2
8,2.8
9,239.0
10,0.0
12,0.0
13,-115.3633012514527
208,0.0
2,1, 3, 4, 0,21,30.00,40.00,Sunday
7,24.0
8,2.7
9,310.0
10,0.0
12,0.0
13,-117.86330125145271
208,0.0
2,1, 3, 4, 0,21,40.00,50.00,Sunday
7,24.4
8,3.1
9,348.0
10,0.0
12,0.0
13,-120.36330125145268
208,0.0
2,1, 3, 4, 0,21,50.00,60.00,Sunday
7,24.2
8,2.1
9,251.0
10,0.0
12,0.0
13,-122.86330125145268
208,0.0
2,1, 3, 4, 0,21, 0.00,60.00,Sunday
11,0.0
2,1, 3, 4, 0,22, 0.00,10.00,Sunday
7,24.0
8,1.2
9,110.0
10,0.0
12,0.0
13,-125.36330125145271
208,0.0
2,1, 3, 4, 0,22,10.00,20.00,Sunday
7,24.0
8,1.6
9,279.0
10,0.0
12,0.0
13,-127.86330125145268
208,0.0
2,1, 3, 4, 0,22,20.00,30.00,Sunday
7,23.8
8,2.0
9,348.0
10,0.0
12,0.0
13,-130.3633012514527
208,0.0
2,1, 3, 4, 0,22,30.00,40.00,Sunday
7,23.8
8,2.7
9,355.0
10,0.0
12,0.0
13,-132.8633012514527
208,0.0
2,1, 3, 4, 0,22,40.00,50.00,Sunday
7,23.5
8,2.1
9,355.0
10,0.0
12,0.0
13,-135.3633012514527
208,0.0
2,1, 3, 4, 0,22,50.00,60.00,Sunday
7,23.5
8,2.2
9,284.0
10,0.0
12,0.0
13,-137.8633012514527
208,0.0
2,1, 3, 4, 0,22, 0.00,60.00,Sunday
11,0.0
2,1, 3, 4, 0,23, 0.00,10.00,Sunday
7,23.4
8,1.5
9,319.0
10,0.0
12,0.0
13,-140.3633012514527
208,0.0
2,1, 3, 4, 0,23,10.00,20.00,Sunday
7,23.6
8,1.5
9,109.0
10,0.0
12,0.0
13,-142.8633012514527
208,0.0
2,1, 3, 4, 0,23,20.00,30.00,Sunday
7,23.5
8,0.3
9,273.0
10,0.0
12,0.0
13,-145.3633012514527
208,0.0
2,1, 3, 4, 0,23,30.00,40.00,Sunday
7,23.1
8,0.1
9,323.0
10,0.0
12,0.0
13,-147.8633012514527
208,0.0
2,1, 3, 4, 0,23,40.00,50.00,Sunday
7,23.0
8,0.6
9,287.0
10,0.0
12,0.0
13,-150.3633012514527
208,0.0
2,1, 3, 4, 0,23,50.00,60.00,Sunday
7,22.6
8,1.3
9,284.0
10,0.0
12,0.0
13,-152.8633012514527
208,0.0
2,1, 3, 4, 0,23, 0.00,60.00,Sunday
11,0.0
2,1, 3, 4, 0,24, 0.00,10.00,Sunday
7,22.4
8,1.3
9,170.0
10,0.0
12,0.0
13,-155.3633012514527
208,0.0
2,1, 3, 4, 0,24,10.00,20.00,Sunday
7,22.4
8,0.8
9,115.0
10,0.0
12,0.0
13,-157.8633012514527
208,0.0
2,1, 3, 4, 0,24,20.00,30.00,Sunday
7,21.9
8,0.3
9,215.0
10,0.0
12,0.0
13,-160.3633012514527
208,0.0
2,1, 3, 4, 0,24,30.00,40.00,Sunday
7,21.4
8,1.0
9,229.0
10,0.0
12,0.0
13,-162.8633012514527
208,0.0
2,1, 3, 4, 0,24,40.00,50.00,Sunday
7,21.6
8,1.0
9,50.0
10,0.0
12,0.0
13,-165.3633012514527
208,0.0
2,1, 3, 4, 0,24,50.00,60.00,Sunday
7,21.3
8,1.2
9,46.0
10,0.0
12,0.0
13,-167.8633012514527
208,0.0
2,1, 3, 4, 0,24, 0.00,60.00,Sunday
11,0.0
2,2, 3, 5, 0, 1, 0.00,10.00,Monday
7,20.5
8,0.3
9,73.0
10,0.0
12,0.0
13,189.58239419569873
208,0.0
2,2, 3, 5, 0, 1,10.00,20.00,Monday
7,20.7
8,1.1
9,95.0
10,0.0
12,0.0
13,187.08239419569873
208,0.0
2,2, 3, 5, 0, 1,20.00,30.00,Monday
7,21.1
8,0.4
9,103.0
10,0.0
12,0.0
13,184.58239419569878
208,0.0
2,2, 3, 5, 0, 1,30.00,40.00,Monday
7,20.9
8,1.5
9,15.0
10,0.0
12,0.0
13,182.08239419569873
208,0.0
2,2, 3, 5, 0, 1,40.00,50.00,Monday
7,20.6
8,2.1
9,247.0
10,0.0
12,0.0
13,179.58239419569873
208,0.0
2,2, 3, 5, 0, 1,50.00,60.00,Monday
7,20.7
8,2.5
9,339.0
10,0.0
12,0.0
13,177.08239419569878
208,0.0
2,2, 3, 5, 0, 1, 0.00,60.00,Monday
11,0.0
2,2, 3, 5, 0, 2, 0.00,10.00,Monday
7,20.8
8,2.4
9,335.0
10,0.0
12,0.0
13,174.58239419569873
208,0.0
2,2, 3, 5, 0, 2,10.00,20.00,Monday
7,20.5
8,2.4
9,323.0
10,0.0
12,0.0
13,172.08239419569873
208,0.0
2,2, 3, 5, 0, 2,20.00,30.00,Monday
7,21.0
8,1.7
9,323.0
10,0.0
12,0.0
13,169.58239419569878
208,0.0
2,2, 3, 5, 0, 2,30.00,40.00,Monday
7,21.1
8,1.8
9,245.0
10,0.0
12,0.0
13,167.08239419569873
208,0.0
2,2, 3, 5, 0, 2,40.00,50.00,Monday
7,20.5
8,1.8
9,308.0
10,0.0
12,0.0
13,164.58239419569873
208,0.0
2,2, 3, 5, 0, 2,50.00,60.00,Monday
7,20.1
8,2.0
9,90.0
10,0.0
12,0.0
13,162.08239419569878
208,0.0
2,2, 3, 5, 0, 2, 0.00,60.00,Monday
11,0.0
2,2, 3, 5, 0, 3, 0.00,10.00,Monday
7,20.1
8,1.3
9,29.0
10,0.0
12,0.0
13,159.58239419569873
208,0.0
2,2, 3, 5, 0, 3,10.00,20.00,Monday
7,20.3
8,1.0
9,33.0
10,0.0
12,0.0
13,157.08239419569873
208,0.0
2,2, 3, 5, 0, 3,20.00,30.00,Monday
7,20.3
8,0.8
9,19.0
10,0.0
12,0.0
13,154.58239419569873
208,0.0
2,2, 3, 5, 0, 3,30.00,40.00,Monday
7,20.2
8,1.1
9,49.0
10,0.0
12,0.0
13,152.08239419569873
208,0.0
2,2, 3, 5, 0, 3,40.00,50.00,Monday
7,20.2
8,0.6
9,36.0
10,0.0
12,0.0
13,149.58239419569873
208,0.0
2,2, 3, 5, 0, 3,50.00,60.00,Monday
7,20.0
8,0.2
9,191.0
10,0.0
12,0.0
13,147.08239419569873
208,0.0
2,2, 3, 5, 0, 3, 0.00,60.00,Monday
11,0.0
2,2, 3, 5, 0, 4, 0.00,10.00,Monday
7,19.9
8,0.6
9,277.0
10,0.0
12,0.0
13,144.58239419569873
208,0.0
2,2, 3, 5, 0, 4,10.00,20.00,Monday
7,20.2
8,1.3
9,344.0
10,0.0
12,0.0
13,142.08239419569873
208,0.0
2,2, 3, 5, 0, 4,20.00,30.00,Monday
7,20.3
8,2.0
9,346.0
10,0.0
12,0.0
13,139.58239419569873
208,0.0
2,2, 3, 5, 0, 4,30.00,40.00,Monday
7,19.7
8,2.4
9,344.0
10,0.0
12,0.0
13,137.08239419569873
208,0.0
2,2, 3, 5, 0, 4,40.00,50.00,Monday
7,19.7
8,2.3
9,340.0
10,0.0
12,0.0
13,134.58239419569875
208,0.0
2,2, 3, 5, 0, 4,50.00,60.00,Monday
7,20.0
8,2.1
9,343.0
10,0.0
12,0.0
13,132.08239419569873
208,0.0
2,2, 3, 5, 0, 4, 0.00,60.00,Monday
11,0.0
2,2, 3, 5, 0, 5, 0.00,10.00,Monday
7,19.1
8,2.5
9,352.0
10,0.0
12,0.0
13,129.58239419569873
208,0.0
2,2, 3, 5, 0, 5,10.00,20.00,Monday
7,18.8
8,2.4
9,315.0
10,0.0
12,0.0
13,127.08239419569875
208,0.0
2,2, 3, 5, 0, 5,20.00,30.00,Monday
7,19.0
8,2.1
9,347.0
10,0.0
12,0.0
13,124.58239419569874
208,0.0
2,2, 3, 5, 0, 5,30.00,40.00,Monday
7,18.8
8,2.0
9,350.0
10,0.0
12,0.0
13,122.08239419569874
208,0.0
2,2, 3, 5, 0, 5,40.00,50.00,Monday
7,18.6
8,1.4
9,248.0
10,0.0
12,0.0
13,119.58239419569875
208,0.0
2,2, 3, 5, 0, 5,50.00,60.00,Monday
7,18.8
8,1.3
9,250.0
10,0.0
12,0.0
13,117.08239419569874
208,0.0
2,2, 3, 5, 0, 5, 0.00,60.00,Monday
11,0.0
2,2, 3, 5, 0, 6, 0.00,10.00,Monday
7,18.0
8,2.1
9,179.0
10,0.0
12,0.0
13,114.58239419569874
208,0.0
2,2, 3, 5, 0, 6,10.00,20.00,Monday
7,18.1
8,1.5
9,344.0
10,0.0
12,0.0
13,112.08239419569875
208,0.0
2,2, 3, 5, 0, 6,20.00,30.00,Monday
7,18.4
8,1.6
9,339.0
10,0.0
12,0.0
13,109.58239419569874
208,0.0
2,2, 3, 5, 0, 6,30.00,40.00,Monday
7,17.5
8,1.9
9,338.0
10,0.0
12,0.0
13,107.08239419569874
208,0.0
2,2, 3, 5, 0, 6,40.00,50.00,Monday
7,17.5
8,1.5
9,333.0
10,0.0
12,0.0
13,104.58239419569875
208,0.0
2,2, 3, 5, 0, 6,50.00,60.00,Monday
7,17.4
8,1.8
9,333.0
10,0.0
12,0.0
13,102.08239419569874
208,0.0
2,2, 3, 5, 0, 6, 0.00,60.00,Monday
11,0.0
2,2, 3, 5, 0, 7, 0.00,10.00,Monday
7,17.2
8,2.1
9,325.0
10,0.0
12,0.0
13,99.58239419569874
208,0.0
2,2, 3, 5, 0, 7,10.00,20.00,Monday
7,17.6
8,1.6
9,328.0
10,0.0
12,0.0
13,97.08239419569875
208,0.0
2,2, 3, 5, 0, 7,20.00,30.00,Monday
7,17.3
8,1.8
9,333.0
10,0.0
12,0.0
13,94.58239419569874
208,0.0
2,2, 3, 5, 0, 7,30.00,40.00,Monday
7,17.1
8,2.5
9,341.0
10,0.0
12,0.0
13,92.08239419569874
208,0.0
2,2, 3, 5, 0, 7,40.00,50.00,Monday
7,17.2
8,2.9
9,351.0
10,0.0
12,0.0
13,89.58239419569875
208,0.0
2,2, 3, 5, 0, 7,50.00,60.00,Monday
7,17.0
8,3.2
9,349.0
10,1.469
12,0.028
13,87.08239419569874
208,1.469522723623689
2,2, 3, 5, 0, 7, 0.00,60.00,Monday
11,0.24483333333333335
2,2, 3, 5, 0, 8, 0.00,10.00,Monday
7,17.0
8,2.8
9,344.0
10,8.77
12,15.95
13,84.58239419569874
208,9.721426958784493
2,2, 3, 5, 0, 8,10.00,20.00,Monday
7,17.0
8,2.8
9,280.0
10,18.63
12,125.4
13,82.08239419569875
208,31.2276258781001
2,2, 3, 5, 0, 8,20.00,30.00,Monday
7,17.2
8,2.8
9,144.0
10,28.32
12,227.8
13,79.58239419569874
208,60.443866035206035
2,2, 3, 5, 0, 8,30.00,40.00,Monday
7,17.3
8,2.0
9,340.0
10,36.75
12,317.2
13,77.08239419569874
208,94.2419689706265
2,2, 3, 5, 0, 8,40.00,50.00,Monday
7,17.7
8,1.8
9,342.0
10,44.6
12,385.0
13,74.58239419569875
208,129.71363850542426
2,2, 3, 5, 0, 8,50.00,60.00,Monday
7,18.4
8,1.1
9,179.0
10,51.56
12,440.8
13,72.08239419569875
208,166.35323187727977
2,2, 3, 5, 0, 8, 0.00,60.00,Monday
11,31.438333333333333
2,2, 3, 5, 0, 9, 0.00,10.00,Monday
7,19.7
8,0.2
9,208.0
10,57.67
12,498.0
13,69.58239419569875
208,206.67704024902736
2,2, 3, 5, 0, 9,10.00,20.00,Monday
7,21.3
8,0.0
9,237.0
10,62.81
12,547.0
13,67.08239419569875
208,247.3528480151844
2,2, 3, 5, 0, 9,20.00,30.00,Monday
7,21.5
8,0.0
9,275.0
10,67.77
12,590.1
13,64.58239419569875
208,288.95883428061154
2,2, 3, 5, 0, 9,30.00,40.00,Monday
7,22.5
8,0.0
9,127.0
10,72.16
12,632.3
13,62.08239419569877
208,332.36410560789363
2,2, 3, 5, 0, 9,40.00,50.00,Monday
7,23.4
8,0.2
9,106.0
10,75.95
12,668.5
13,59.582394195698754
208,375.0131548394698
2,2, 3, 5, 0, 9,50.00,60.00,Monday
7,23.6
8,0.7
9,116.0
10,79.89
12,693.0
13,57.08239419569876
208,414.12248667027177
2,2, 3, 5, 0, 9, 0.00,60.00,Monday
11,69.37499999999999
2,2, 3, 5, 0,10, 0.00,10.00,Monday
7,24.3
8,0.9
9,145.0
10,83.0
12,719.2
13,54.58239419569877
208,454.2898474571213
2,2, 3, 5, 0,10,10.00,20.00,Monday
7,24.6
8,1.2
9,155.0
10,86.6
12,734.3
13,52.082394195698754
208,489.8539439416601
2,2, 3, 5, 0,10,20.00,30.00,Monday
7,24.5
8,1.8
9,167.0
10,89.0
12,768.9
13,49.58239419569876
208,535.7131734384077
2,2, 3, 5, 0,10,30.00,40.00,Monday
7,24.3
8,1.5
9,121.0
10,90.5
12,794.0
13,47.08239419569877
208,576.126859137026
2,2, 3, 5, 0,10,40.00,50.00,Monday
7,24.8
8,1.6
9,81.0
10,92.1
12,816.0
13,44.582394195698754
208,615.1893401279557
2,2, 3, 5, 0,10,50.00,60.00,Monday
7,24.7
8,1.4
9,170.0
10,94.8
12,824.0
13,42.08239419569876
208,646.2054146792684
2,2, 3, 5, 0,10, 0.00,60.00,Monday
11,89.33333333333333
2,2, 3, 5, 0,11, 0.00,10.00,Monday
7,25.8
8,1.4
9,171.0
10,98.1
12,827.0
13,39.58239419569877
208,673.6825506067586
2,2, 3, 5, 0,11,10.00,20.00,Monday
7,24.5
8,2.1
9,153.0
10,100.1
12,839.0
13,37.082394195698754
208,705.3643030945295
2,2, 3, 5, 0,11,20.00,30.00,Monday
7,25.5
8,1.9
9,183.0
10,101.6
12,853.0
13,34.58239419569876
208,737.4278274638116
2,2, 3, 5, 0,11,30.00,40.00,Monday
7,25.9
8,2.0
9,149.0
10,104.0
12,858.0
13,32.08239419569877
208,762.8701566452527
2,2, 3, 5, 0,11,40.00,50.00,Monday
7,25.7
8,2.1
9,155.0
10,107.3
12,864.0
13,29.58239419569875
208,788.9137427163739
2,2, 3, 5, 0,11,50.00,60.00,Monday
7,26.2
8,2.5
9,165.0
10,110.3
12,869.0
13,27.08239419569876
208,812.7427053669475
2,2, 3, 5, 0,11, 0.00,60.00,Monday
11,103.56666666666666
2,2, 3, 5, 0,12, 0.00,10.00,Monday
7,26.1
8,2.0
9,185.0
10,114.0
12,872.0
13,24.582394195698768
208,834.4168839303571
2,2, 3, 5, 0,12,10.00,20.00,Monday
7,26.3
8,1.9
9,181.0
10,115.6
12,878.0
13,22.08239419569875
208,855.1971015852936
2,2, 3, 5, 0,12,20.00,30.00,Monday
7,26.9
8,2.3
9,174.0
10,116.7
12,882.0
13,19.58239419569876
208,872.4879132407341
2,2, 3, 5, 0,12,30.00,40.00,Monday
7,26.5
8,1.3
9,207.0
10,117.6
12,887.0
13,17.082394195698768
208,889.0669281601973
2,2, 3, 5, 0,12,40.00,50.00,Monday
7,26.8
8,2.2
9,187.0
10,119.2
12,892.0
13,14.58239419569875
208,904.9446098315293
2,2, 3, 5, 0,12,50.00,60.00,Monday
7,27.1
8,1.6
9,183.0
10,124.7
12,878.0
13,12.08239419569876
208,906.3610112637737
2,2, 3, 5, 0,12, 0.00,60.00,Monday
11,117.96666666666668
2,2, 3, 5, 0,13, 0.00,10.00,Monday
7,27.4
8,2.0
9,178.0
10,127.7
12,881.0
13,9.582394195698768
208,918.7633833956418
2,2, 3, 5, 0,13,10.00,20.00,Monday
7,27.5
8,2.3
9,221.0
10,134.7
12,872.0
13,7.08239419569875
208,922.8026788752657
2,2, 3, 5, 0,13,20.00,30.00,Monday
7,27.9
8,2.0
9,236.0
10,141.1
12,864.0
13,4.582394195698759
208,925.5081780150189
2,2, 3, 5, 0,13,30.00,40.00,Monday
7,28.2
8,1.3
9,148.0
10,146.7
12,844.0
13,2.082394195698768
208,914.8957975745479
2,2, 3, 5, 0,13,40.00,50.00,Monday
7,29.2
8,1.4
9,82.0
10,152.5
12,839.0
13,-0.4176058043012496
208,916.5750887204343
2,2, 3, 5, 0,13,50.00,60.00,Monday
7,28.5
8,2.5
9,96.0
10,154.1
12,820.0
13,-2.9176058043012407
208,899.8220793103327
2,2, 3, 5, 0,13, 0.00,60.00,Monday
11,142.8
2,2, 3, 5, 0,14, 0.00,10.00,Monday
7,28.1
8,1.9
9,146.0
10,153.9
12,813.0
13,-5.417605804301232
208,890.7596619943264
2,2, 3, 5, 0,14,10.00,20.00,Monday
7,28.7
8,1.7
9,144.0
10,155.0
12,806.0
13,-7.91760580430125
208,881.6017807881071
2,2, 3, 5, 0,14,20.00,30.00,Monday
7,29.1
8,2.3
9,144.0
10,155.8
12,797.4
13,-10.417605804301239
208,869.3615224919893
2,2, 3, 5, 0,14,30.00,40.00,Monday
7,30.0
8,1.0
9,98.0
10,155.0
12,806.0
13,-12.917605804301232
208,869.492028584469
2,2, 3, 5, 0,14,40.00,50.00,Monday
7,29.1
8,1.5
9,156.0
10,153.5
12,798.2
13,-15.41760580430125
208,852.9834409831241
2,2, 3, 5, 0,14,50.00,60.00,Monday
7,30.1
8,2.4
9,203.0
10,152.5
12,790.4
13,-17.91760580430124
208,835.7676001083072
2,2, 3, 5, 0,14, 0.00,60.00,Monday
11,154.28333333333333
2,2, 3, 5, 0,15, 0.00,10.00,Monday
7,29.9
8,1.9
9,204.0
10,150.3
12,790.6
13,-20.417605804301232
208,823.0096905150333
2,2, 3, 5, 0,15,10.00,20.00,Monday
7,30.3
8,1.5
9,150.0
10,148.8
12,792.7
13,-22.917605804301246
208,811.2062153622305
2,2, 3, 5, 0,15,20.00,30.00,Monday
7,30.7
8,2.0
9,161.0
10,148.0
12,775.5
13,-25.41760580430124
208,782.92569816818
2,2, 3, 5, 0,15,30.00,40.00,Monday
7,30.4
8,2.1
9,170.0
10,143.9
12,782.9
13,-27.917605804301232
208,770.3849440803582
2,2, 3, 5, 0,15,40.00,50.00,Monday
7,30.4
8,2.7
9,155.0
10,140.5
12,783.9
13,-30.417605804301246
208,752.0266361195677
2,2, 3, 5, 0,15,50.00,60.00,Monday
7,31.4
8,0.9
9,156.0
10,137.4
12,782.4
13,-32.91760580430124
208,730.8197864796064
2,2, 3, 5, 0,15, 0.00,60.00,Monday
11,144.81666666666666
2,2, 3, 5, 0,16, 0.00,10.00,Monday
7,31.7
8,2.0
9,154.0
10,136.7
12,787.9
13,-35.41760580430123
208,716.0512239377431
2,2, 3, 5, 0,16,10.00,20.00,Monday
7,31.6
8,2.7
9,200.0
10,137.4
12,766.5
13,-37.917605804301246
208,682.152490769745
2,2, 3, 5, 0,16,20.00,30.00,Monday
7,32.3
8,0.9
9,136.0
10,137.6
12,743.8
13,-40.41760580430124
208,646.864680038683
2,2, 3, 5, 0,16,30.00,40.00,Monday
7,32.8
8,1.5
9,141.0
10,138.5
12,723.6
13,-42.91760580430123
208,614.1188272695874
2,2, 3, 5, 0,16,40.00,50.00,Monday
7,32.7
8,1.9
9,151.0
10,139.6
12,702.1
13,-45.417605804301246
208,580.940246917557
2,2, 3, 5, 0,16,50.00,60.00,Monday
7,32.9
8,1.7
9,146.0
10,141.6
12,676.8
13,-47.91760580430124
208,546.7658647256496
2,2, 3, 5, 0,16, 0.00,60.00,Monday
11,138.5666666666667
2,2, 3, 5, 0,17, 0.00,10.00,Monday
7,32.6
8,2.3
9,120.0
10,144.4
12,675.0
13,-50.41760580430126
208,527.4621118576849
2,2, 3, 5, 0,17,10.00,20.00,Monday
7,33.0
8,1.5
9,125.0
10,142.7
12,631.5
13,-52.917605804301246
208,480.685023318235
2,2, 3, 5, 0,17,20.00,30.00,Monday
7,33.2
8,2.1
9,128.0
10,144.8
12,584.3
13,-55.41760580430126
208,438.02632844216265
2,2, 3, 5, 0,17,30.00,40.00,Monday
7,33.1
8,2.1
9,114.0
10,153.5
12,554.0
13,-57.91760580430129
208,412.4726314787301
2,2, 3, 5, 0,17,40.00,50.00,Monday
7,33.2
8,1.8
9,121.0
10,165.6
12,516.2
13,-60.417605804301246
208,388.66443693309986
2,2, 3, 5, 0,17,50.00,60.00,Monday
7,33.3
8,2.0
9,154.0
10,176.3
12,490.7